 Gaussian 16, Revision A.03,
 Gaussian 16:  ES64L-G16RevA.03 25-Dec-2016

 -------------------------------------------------------
 #N TD(NStates=10) B3LYP/6-311+G(2d,p) Geom=Connectivity
 -------------------------------------------------------

 -------------
 beta-Carotene
 -------------
 Symbolic Z-matrix:
 Charge =  0 Multiplicity = 1

                         Standard orientation:
 ---------------------------------------------------------------------
 Center     Atomic      Atomic             Coordinates (Angstroms)
 Number     Number       Type             X           Y           Z
 ---------------------------------------------------------------------
      1          6           0      -13.004433   -1.853473    0.475950
      2          6           0      -12.702278   -0.656659   -0.431331
      3          6           0      -11.576636    0.150006    0.193803
      4          6           0      -11.753454    1.388450    0.696449
      5          6           0      -13.081831    2.073062    0.695997
      6          6           0      -14.238490    1.105375    0.536282
      7          6           0      -13.977176    0.177891   -0.632251
      8          1           0      -14.841106   -0.498119   -0.788559
      9          1           0      -13.891973    0.776136   -1.562481
     10          1           0      -14.382200    0.520776    1.467361
     11          1           0      -15.182843    1.662115    0.381881
     12          1           0      -13.084804    2.819940   -0.124452
     13          1           0      -13.206663    2.652335    1.633364
     14          6           0      -10.649001    2.183128    1.301537
     15          1           0      -10.259984    1.691662    2.203781
     16          1           0       -9.807391    2.289735    0.596707
     17          1           0      -10.968711    3.194385    1.586211
     18          6           0      -10.307968   -0.580665    0.251907
     19          6           0       -9.110775   -0.068071   -0.059756
     20          6           0       -7.859811   -0.821092   -0.040451
     21          6           0       -6.695114   -0.150719   -0.181398
     22          6           0       -5.394621   -0.788138   -0.185559
     23          6           0       -4.257329   -0.078064   -0.263542
     24          6           0       -2.919015   -0.658330   -0.271150
     25          6           0       -1.851043    0.171000   -0.265968
     26          6           0       -0.477308   -0.283584   -0.273295
     27          6           0        0.558500    0.573234   -0.232440
     28          6           0        1.928552    0.108280   -0.240226
     29          6           0        3.010005    0.916099   -0.161890
     30          6           0        4.336391    0.307389   -0.181868
     31          6           0        5.482399    0.999815   -0.078407
     32          6           0        6.779640    0.359343   -0.100456
     33          6           0        7.948823    1.026244    0.021895
     34          6           0        9.195807    0.266788   -0.016446
     35          6           0       10.415682    0.804972    0.109433
     36          6           0       11.676918    0.060716    0.041815
     37          6           0       11.834765   -1.217131    0.841449
     38          6           0       13.328506   -1.531067    1.048914
     39          6           0       14.060573   -1.487086   -0.278388
     40          6           0       14.020390   -0.079603   -0.842195
     41          6           0       12.677844    0.561760   -0.715170
     42          6           0       12.528457    1.828103   -1.483821
     43          1           0       11.776532    2.494187   -1.026952
     44          1           0       12.204053    1.619072   -2.512138
     45          1           0       13.475451    2.381073   -1.539129
     46          1           0       14.324893   -0.086105   -1.907919
     47          1           0       14.758124    0.564325   -0.319868
     48          1           0       13.571038   -2.197997   -0.982424
     49          1           0       15.105870   -1.829367   -0.165969
     50          1           0       13.775260   -0.806820    1.758430
     51          1           0       13.439073   -2.527331    1.520371
     52          6           0       11.182585   -1.077306    2.216856
     53          1           0       11.343711   -1.978347    2.823678
     54          1           0       10.098065   -0.922770    2.133456
     55          1           0       11.595915   -0.224501    2.770705
     56          6           0       11.198440   -2.384016    0.080018
     57          1           0       11.177319   -3.294287    0.693490
     58          1           0       11.779334   -2.608179   -0.830031
     59          1           0       10.163682   -2.162579   -0.221782
     60          1           0       10.550262    1.896358    0.214462
     61          1           0        9.092829   -0.822427   -0.163643
     62          6           0        8.015158    2.501261    0.193731
     63          1           0        7.013078    2.961556    0.191816
     64          1           0        8.593537    2.966629   -0.616320
     65          1           0        8.497445    2.764743    1.144996
     66          1           0        6.786318   -0.732884   -0.224448
     67          1           0        5.467135    2.102011    0.029430
     68          1           0        4.364479   -0.786704   -0.287447
     69          6           0        2.894719    2.395297   -0.056354
     70          1           0        2.387536    2.816748   -0.935076
     71          1           0        3.880825    2.883558    0.017785
     72          1           0        2.319443    2.687084    0.832923
     73          1           0        2.071961   -0.979423   -0.314666
     74          1           0        0.385389    1.657184   -0.191430
     75          1           0       -0.318296   -1.374337   -0.312954
     76          1           0       -2.008055    1.258969   -0.254523
     77          6           0       -2.783275   -2.138515   -0.284600
     78          1           0       -3.220936   -2.581445    0.620612
     79          1           0       -1.727887   -2.454481   -0.330130
     80          1           0       -3.296608   -2.573197   -1.153039
     81          1           0       -4.304308    1.019174   -0.323107
     82          1           0       -5.389920   -1.889347   -0.120079
     83          1           0       -6.708417    0.941942   -0.300810
     84          6           0       -7.922350   -2.296664    0.127325
     85          1           0       -6.929320   -2.764714    0.025168
     86          1           0       -8.583543   -2.750503   -0.623536
     87          1           0       -8.310495   -2.562317    1.120406
     88          1           0       -9.034456    0.996588   -0.340638
     89          1           0      -10.428057   -1.637784    0.552998
     90          6           0      -12.255949   -1.169266   -1.805107
     91          1           0      -11.949957   -0.344083   -2.461225
     92          1           0      -11.402749   -1.856693   -1.722840
     93          1           0      -13.069300   -1.710586   -2.306503
     94          1           0      -12.078321   -2.405826    0.707809
     95          1           0      -13.703429   -2.552760   -0.000450
     96          1           0      -13.446602   -1.534953    1.428959
 ---------------------------------------------------------------------

 SCF Done:  E(RB3LYP) =  -1558.30629986     A.U. after   14 cycles

 Excitation energies and oscillator strengths:

 Excited State   1:      Singlet-A      2.3823 eV  520.43 nm  f=3.7219  <S**2>=0.000
     148 -> 149        0.70507
 This state for optimization and/or second-order correction.
 Total Energy, E(TD-HF/TD-DFT) =  -1558.21875117
 Copying the excited state density for this state as the 1-particle RhoCI density.

 Excited State   2:      Singlet-A      2.8422 eV  436.23 nm  f=0.0029  <S**2>=0.000
     147 -> 149        0.58723
     148 -> 150        0.38216

 Excited State   3:      Singlet-A      3.3815 eV  366.65 nm  f=0.0469  <S**2>=0.000
     145 -> 149       -0.19564
     146 -> 149       -0.24493
     147 -> 149       -0.34347
     148 -> 150        0.52287

 Excited State   4:      Singlet-A      3.4210 eV  362.42 nm  f=0.0615  <S**2>=0.000
     146 -> 149        0.59532
     147 -> 149       -0.13491
     148 -> 150        0.20578
     148 -> 151        0.25438

 Excited State   5:      Singlet-A      3.7709 eV  328.79 nm  f=0.2734  <S**2>=0.000
     147 -> 150        0.59061
     148 -> 151        0.36871

 Excited State   6:      Singlet-A      3.9125 eV  316.89 nm  f=0.0019  <S**2>=0.000
     145 -> 149        0.62741
     148 -> 150        0.17354
     148 -> 154        0.10048
     148 -> 156       -0.13508

 Excited State   7:      Singlet-A      3.9981 eV  310.11 nm  f=0.0999  <S**2>=0.000
     144 -> 149       -0.37988
     145 -> 149        0.11895
     146 -> 149       -0.21280
     147 -> 150       -0.29682
     148 -> 151        0.43131

 Excited State   8:      Singlet-A      4.2108 eV  294.44 nm  f=0.0058  <S**2>=0.000
     148 -> 152        0.45195
     148 -> 153        0.40783
     148 -> 154        0.18088
     148 -> 155        0.24473

 Excited State   9:      Singlet-A      4.2543 eV  291.43 nm  f=0.0014  <S**2>=0.000
     146 -> 150       -0.22758
     147 -> 152        0.11361
     148 -> 152       -0.38672
     148 -> 153        0.42811
     148 -> 154        0.20960
     148 -> 155       -0.10832
     148 -> 156        0.11800

 Excited State  10:      Singlet-A      4.2649 eV  290.71 nm  f=0.0024  <S**2>=0.000
     146 -> 150        0.60278
     147 -> 151       -0.12635
     148 -> 152       -0.14101
     148 -> 154        0.20119
     148 -> 155       -0.13954

 The electronic state is 1-A.
 Alpha  occ. eigenvalues --  -10.18117 -10.18037 -10.18030 -10.17993 -10.17959
 Alpha  occ. eigenvalues --  -10.17956 -10.17429 -10.17324 -10.17261 -10.17223
 Alpha  occ. eigenvalues --  -10.17146 -10.17133 -10.17128 -10.17027 -10.16971
 Alpha  occ. eigenvalues --  -10.16957 -10.16934 -10.16877 -10.16873 -10.16848
 Alpha  occ. eigenvalues --  -10.16813 -10.16800 -10.16742 -10.16737 -10.16730
 Alpha  occ. eigenvalues --  -10.16728 -10.16715 -10.16711 -10.16526 -10.16351
 Alpha  occ. eigenvalues --  -10.16308 -10.16305 -10.16219 -10.16205 -10.16178
 Alpha  occ. eigenvalues --  -10.15819 -10.15688 -10.15591 -10.15357 -10.15097
 Alpha  occ. eigenvalues --   -0.86253  -0.86089  -0.84476  -0.84012  -0.83080
 Alpha  occ. eigenvalues --   -0.82431  -0.79721  -0.79420  -0.79339  -0.78587
 Alpha  occ. eigenvalues --   -0.77846  -0.76140  -0.74947  -0.72933  -0.72617
 Alpha  occ. eigenvalues --   -0.70614  -0.69290  -0.69260  -0.68676  -0.68541
 Alpha  occ. eigenvalues --   -0.68446  -0.68292  -0.67776  -0.67541  -0.67131
 Alpha  occ. eigenvalues --   -0.63631  -0.61981  -0.60425  -0.58917  -0.57502
 Alpha  occ. eigenvalues --   -0.56640  -0.56522  -0.55144  -0.54891  -0.53829
 Alpha  occ. eigenvalues --   -0.53514  -0.52869  -0.51770  -0.50650  -0.50312
 Alpha  occ. eigenvalues --   -0.49149  -0.48318  -0.47948  -0.47564  -0.47240
 Alpha  occ. eigenvalues --   -0.46453  -0.45815  -0.45248  -0.45054  -0.44803
 Alpha  occ. eigenvalues --   -0.44065  -0.43740  -0.43047  -0.42857  -0.42672
 Alpha  occ. eigenvalues --   -0.42626  -0.42563  -0.42374  -0.42333  -0.42313
 Alpha  occ. eigenvalues --   -0.41994  -0.41648  -0.41055  -0.40765  -0.40566
 Alpha  occ. eigenvalues --   -0.40492  -0.39804  -0.39632  -0.39215  -0.39020
 Alpha  occ. eigenvalues --   -0.38807  -0.38785  -0.38581  -0.38023  -0.37810
 Alpha  occ. eigenvalues --   -0.37401  -0.37211  -0.36944  -0.36772  -0.36337
 Alpha  occ. eigenvalues --   -0.35912  -0.35733  -0.35589  -0.35334  -0.34933
 Alpha  occ. eigenvalues --   -0.34848  -0.34603  -0.34330  -0.34255  -0.34073
 Alpha  occ. eigenvalues --   -0.33682  -0.33396  -0.33200  -0.32739  -0.32207
 Alpha  occ. eigenvalues --   -0.32012  -0.31505  -0.31294  -0.30097  -0.29531
 Alpha  occ. eigenvalues --   -0.29342  -0.29110  -0.27418  -0.25193  -0.23575
 Alpha  occ. eigenvalues --   -0.21905  -0.19829  -0.17360
 Alpha virt. eigenvalues --   -0.08216  -0.04975  -0.02160  -0.00289  -0.00191
 Alpha virt. eigenvalues --    0.00261   0.00379   0.00512   0.00755   0.00911
 Alpha virt. eigenvalues --    0.01128   0.01359   0.01652   0.01800   0.02028

 Mulliken charges:
               1
     1  C   -0.505021
     2  C    0.455954
     3  C    0.250502
     4  C    0.274698
     5  C   -0.478153
     6  C   -0.275268
     7  C   -0.277051
     8  H    0.098124
     9  H    0.100927
    10  H    0.098999
    11  H    0.104129
    12  H    0.122538
    13  H    0.113200
    14  C   -0.542318
    15  H    0.139708
    16  H    0.109673
    17  H    0.114855
    18  C   -0.332308
    19  C   -0.064379
    20  C    0.632918
    21  C   -0.229875
    22  C   -0.023890
    23  C   -0.146788
    24  C    0.669921
    25  C   -0.218243
    26  C   -0.125971
    27  C   -0.061281
    28  C    0.069640
    29  C    0.601140
    30  C   -0.321467
    31  C    0.015049
    32  C   -0.161041
    33  C    0.492749
    34  C   -0.102008
    35  C   -0.238042
    36  C    0.387468
    37  C    0.475550
    38  C   -0.329352
    39  C   -0.262815
    40  C   -0.483291
    41  C    0.093373
    42  C   -0.428348
    43  H    0.102395
    44  H    0.140915
    45  H    0.120496
    46  H    0.118068
    47  H    0.123062
    48  H    0.093228
    49  H    0.105002
    50  H    0.100034
    51  H    0.098571
    52  C   -0.489312
    53  H    0.121615
    54  H    0.144391
    55  H    0.121106
    56  C   -0.477687
    57  H    0.117236
    58  H    0.105315
    59  H    0.112886
    60  H    0.078876
    61  H    0.049244
    62  C   -0.788251
    63  H    0.109033
    64  H    0.137077
    65  H    0.137127
    66  H    0.071407
    67  H    0.045374
    68  H    0.070427
    69  C   -0.846953
    70  H    0.139254
    71  H    0.113662
    72  H    0.138588
    73  H    0.068157
    74  H    0.079346
    75  H    0.063301
    76  H    0.070412
    77  C   -0.842132
    78  H    0.136375
    79  H    0.108741
    80  H    0.136234
    81  H    0.068616
    82  H    0.070749
    83  H    0.070156
    84  C   -0.812706
    85  H    0.109424
    86  H    0.135295
    87  H    0.138401
    88  H    0.053827
    89  H    0.074639
    90  C   -0.485988
    91  H    0.124655
    92  H    0.133095
    93  H    0.124714
    94  H    0.112823
    95  H    0.119087
    96  H    0.116390
 Sum of Mulliken charges =  -0.00000

 Dipole moment (field-independent basis, Debye):
    X=              0.3462    Y=              0.3274    Z=              0.0318  Tot=              0.4776
 Quadrupole moment (field-independent basis, Debye-Ang):
   XX=           -218.1984   YY=           -238.8813   ZZ=           -261.8623
   XY=              2.4507   XZ=             -4.0176   YZ=              0.1841

 Normal termination of Gaussian 16 at Mon Jan  7 16:05:41 2019.
