 Gaussian 16, Revision A.03,
 Gaussian 16:  ES64L-G16RevA.03 25-Dec-2016

 -------------------------------------------------------
 #N TD(NStates=10) B3LYP/6-311+G(2d,p) Geom=Connectivity
 -------------------------------------------------------

 -----------
 chlorophyll
 -----------
 Symbolic Z-matrix:
 Charge =  0 Multiplicity = 1

                         Standard orientation:
 ---------------------------------------------------------------------
 Center     Atomic      Atomic             Coordinates (Angstroms)
 Number     Number       Type             X           Y           Z
 ---------------------------------------------------------------------
      1          6           0       -1.102435   -0.886587    1.001617
      2          6           0       -2.345607   -0.848052    0.137630
      3          7           0       -3.489935   -0.627505    0.987005
      4          6           0       -3.114608   -0.315555    2.200118
      5          6           0       -1.604003   -0.317360    2.364827
      6          6           0       -1.062802    1.069836    2.641976
      7          1           0        0.030427    1.050219    2.745543
      8          1           0       -1.305898    1.776856    1.837801
      9          1           0       -1.480143    1.474477    3.573598
     10          1           0       -1.301511   -1.000782    3.202036
     11          6           0       -4.000862   -0.032441    3.311809
     12          6           0       -5.305224    0.292484    3.259262
     13          7           0       -6.128920    0.439921    2.080818
     14          6           0       -7.372151    0.671706    2.461824
     15          6           0       -7.453490    0.723612    3.951238
     16          6           0       -6.189492    0.521347    4.429425
     17          6           0       -5.688027    0.518133    5.809921
     18          1           0       -4.711311    0.011633    5.867446
     19          1           0       -5.553315    1.546983    6.173293
     20          1           0       -6.392700    0.019542    6.495257
     21          6           0       -8.702882    0.943461    4.639048
     22          6           0       -8.871507    0.859191    5.957881
     23          1           0       -8.060292    0.612841    6.644825
     24          1           0       -9.833765    1.020193    6.433335
     25          1           0       -9.548590    1.176532    3.969133
     26          6           0       -8.528908    0.844641    1.606588
     27          6           0       -8.551946    0.794594    0.262025
     28          7           0       -7.392923    0.588626   -0.574045
     29          6           0       -7.778943    0.531948   -1.835707
     30          6           0       -6.905161    0.358223   -2.977829
     31          6           0       -5.624106   -0.050311   -2.908259
     32          7           0       -4.967791   -0.432695   -1.663143
     33          6           0       -3.697601   -0.600663   -1.935832
     34          6           0       -2.470043   -0.869679   -1.202200
     35          6           0       -1.361642   -0.979146   -2.232299
     36          6           0       -1.991823   -0.593433   -3.608484
     37          8           0       -1.369111   -0.467902   -4.637742
     38          6           0       -3.422842   -0.400608   -3.375022
     39          6           0       -4.596032   -0.096011   -3.991434
     40          6           0       -4.858164    0.162354   -5.411472
     41          1           0       -5.565964    0.991955   -5.544521
     42          1           0       -3.938273    0.408102   -5.957817
     43          1           0       -5.298311   -0.728613   -5.881855
     44          6           0       -0.747369   -2.366587   -2.328730
     45          8           0       -1.641950   -3.374990   -2.518822
     46          6           0       -1.158395   -4.699585   -2.611450
     47          1           0       -2.079660   -5.271788   -2.746858
     48          1           0       -0.645611   -5.007146   -1.693474
     49          1           0       -0.493076   -4.831155   -3.471319
     50          8           0        0.440438   -2.624625   -2.266957
     51          1           0       -0.550146   -0.252637   -1.977841
     52          1           0       -7.372058    0.606771   -3.948079
     53          6           0       -9.245923    0.732016   -1.925773
     54          6           0       -9.714359    0.899289   -0.654988
     55          6           0      -11.102183    1.124810   -0.227334
     56          1           0      -11.152624    1.702872    0.704911
     57          1           0      -11.671117    1.668267   -0.994746
     58          1           0      -11.612391    0.165994   -0.056077
     59          6           0       -9.979244    0.752921   -3.209129
     60          6           0      -10.860923   -0.466550   -3.380066
     61          1           0      -10.276128   -1.395144   -3.366748
     62          1           0      -11.605445   -0.536843   -2.574823
     63          1           0      -11.404090   -0.430694   -4.332752
     64          1           0      -10.587707    1.677596   -3.269703
     65          1           0       -9.235551    0.813213   -4.036790
     66          1           0       -9.470626    1.018067    2.160614
     67          1           0       -3.546865   -0.097273    4.317487
     68          6           0       -0.556754   -2.304753    1.161259
     69          6           0        0.597338   -2.326849    2.153166
     70          6           0        1.214320   -3.701562    2.248994
     71          8           0        2.262466   -4.138046    1.491613
     72          6           0        2.830201   -3.287269    0.506914
     73          6           0        3.693287   -2.218977    1.091960
     74          6           0        3.651328   -0.928185    0.733442
     75          6           0        4.554831    0.083698    1.372761
     76          6           0        5.969878   -0.412289    1.643518
     77          6           0        6.924588   -0.195324    0.477573
     78          6           0        6.750361   -1.238960   -0.627210
     79          6           0        7.526560   -0.870616   -1.895181
     80          6           0        9.041506   -0.896593   -1.737704
     81          6           0        9.641819    0.482158   -1.500171
     82          6           0       11.054171    0.376212   -0.923582
     83          6           0       11.717401    1.752613   -0.862867
     84          6           0       13.178800    1.636757   -0.461020
     85          6           0       13.799929    2.993062   -0.171842
     86          6           0       15.204381    2.847190    0.417315
     87          6           0       15.879516    4.204077    0.520982
     88          1           0       16.886628    4.114148    0.948376
     89          1           0       15.310888    4.891468    1.161931
     90          1           0       15.979167    4.679719   -0.463444
     91          6           0       15.144172    2.176511    1.780769
     92          1           0       14.680738    2.827681    2.533797
     93          1           0       16.143840    1.909303    2.144152
     94          1           0       14.540990    1.254225    1.727232
     95          1           0       15.807090    2.202233   -0.268646
     96          1           0       13.160213    3.567062    0.529136
     97          1           0       13.841357    3.595600   -1.100893
     98          1           0       13.751481    1.116434   -1.254301
     99          1           0       13.267505    0.983333    0.445174
    100          1           0       11.170864    2.399140   -0.146346
    101          1           0       11.635428    2.259061   -1.845156
    102          6           0       11.014044   -0.255613    0.460391
    103          1           0       10.574341   -1.265243    0.410641
    104          1           0       12.028567   -0.323144    0.884411
    105          1           0       10.401821    0.332031    1.158608
    106          1           0       11.661451   -0.278463   -1.596986
    107          1           0        9.658648    1.054859   -2.448758
    108          1           0        9.002615    1.071553   -0.810125
    109          1           0        9.321337   -1.576232   -0.891595
    110          1           0        9.505811   -1.345514   -2.637252
    111          1           0        7.235550   -1.584993   -2.691171
    112          1           0        7.195528    0.124553   -2.254610
    113          6           0        7.149555   -2.616344   -0.120899
    114          1           0        6.670650   -2.821762    0.851213
    115          1           0        6.852720   -3.406860   -0.820341
    116          1           0        8.242012   -2.683852    0.017691
    117          1           0        5.661851   -1.263896   -0.894305
    118          1           0        7.971108   -0.227077    0.850121
    119          1           0        6.787855    0.821948    0.056661
    120          1           0        6.368076    0.109698    2.534687
    121          1           0        5.948946   -1.500440    1.906466
    122          1           0        4.589317    1.002347    0.751372
    123          1           0        4.078770    0.388926    2.327014
    124          6           0        2.704555   -0.389532   -0.278227
    125          1           0        1.983624   -1.151384   -0.624269
    126          1           0        2.127618    0.450894    0.132937
    127          1           0        3.252742   -0.025701   -1.158065
    128          1           0        4.440790   -2.539861    1.837514
    129          1           0        3.443602   -4.002452   -0.070267
    130          1           0        2.050718   -2.871928   -0.171207
    131          8           0        0.880718   -4.595193    2.999926
    132          1           0        0.217853   -2.015321    3.153288
    133          1           0        1.368154   -1.575319    1.874587
    134          1           0       -1.358299   -2.993511    1.495855
    135          1           0       -0.224427   -2.686305    0.174513
    136          1           0       -0.305467   -0.234536    0.563749
    137         12           0       -4.887779   13.477559   -1.350917
 ---------------------------------------------------------------------

 SCF Done:  E(RB3LYP) =  -2935.03002179     A.U. after   26 cycles

 Excitation energies and oscillator strengths:

 Excited State   1:      Singlet-A      1.1395 eV 1088.03 nm  f=0.0000  <S**2>=0.000
     241 -> 242        0.70710
 This state for optimization and/or second-order correction.
 Total Energy, E(TD-HF/TD-DFT) =  -2934.98814495
 Copying the excited state density for this state as the 1-particle RhoCI density.

 Excited State   2:      Singlet-A      1.1418 eV 1085.86 nm  f=0.0008  <S**2>=0.000
     238 -> 242       -0.10075
     239 -> 242        0.38185
     240 -> 242        0.57593

 Excited State   3:      Singlet-A      1.3207 eV  938.77 nm  f=0.0000  <S**2>=0.000
     239 -> 242        0.57275
     240 -> 242       -0.40339

 Excited State   4:      Singlet-A      1.7012 eV  728.82 nm  f=0.0200  <S**2>=0.000
     237 -> 242       -0.14962
     238 -> 242        0.67381
     239 -> 242        0.10559

 Excited State   5:      Singlet-A      1.7780 eV  697.34 nm  f=0.0053  <S**2>=0.000
     236 -> 242        0.49431
     237 -> 242       -0.46188
     239 -> 243       -0.10339

 Excited State   6:      Singlet-A      1.8352 eV  675.58 nm  f=0.0118  <S**2>=0.000
     236 -> 242        0.45374
     237 -> 242        0.49301
     238 -> 242        0.13447
     240 -> 243       -0.11906

 Excited State   7:      Singlet-A      2.0825 eV  595.35 nm  f=0.0002  <S**2>=0.000
     233 -> 242        0.66507

 Excited State   8:      Singlet-A      2.2327 eV  555.32 nm  f=0.0049  <S**2>=0.000
     234 -> 242        0.67896

 Excited State   9:      Singlet-A      2.3251 eV  533.25 nm  f=0.0000  <S**2>=0.000
     241 -> 243        0.70710

 Excited State  10:      Singlet-A      2.4231 eV  511.68 nm  f=0.0009  <S**2>=0.000
     235 -> 242        0.69261

 The electronic state is 1-A.
 Alpha  occ. eigenvalues --  -46.79029 -19.17821 -19.15457 -19.12557 -19.12394
 Alpha  occ. eigenvalues --  -19.09339 -14.31524 -14.29865 -14.29388 -14.28838
 Alpha  occ. eigenvalues --  -10.32011 -10.29492 -10.27663 -10.23483 -10.22879
 Alpha  occ. eigenvalues --  -10.22611 -10.22606 -10.22471 -10.22455 -10.22342
 Alpha  occ. eigenvalues --  -10.22032 -10.22009 -10.21975 -10.21379 -10.21238
 Alpha  occ. eigenvalues --  -10.21008 -10.20919 -10.20825 -10.20349 -10.20196
 Alpha  occ. eigenvalues --  -10.20144 -10.19881 -10.19506 -10.19436 -10.19426
 Alpha  occ. eigenvalues --  -10.18939 -10.18807 -10.18608 -10.18523 -10.18520
 Alpha  occ. eigenvalues --  -10.18296 -10.18293 -10.18222 -10.18178 -10.18102
 Alpha  occ. eigenvalues --  -10.18009 -10.17571 -10.17252 -10.17232 -10.16907
 Alpha  occ. eigenvalues --  -10.16827 -10.16749 -10.16709 -10.16682 -10.16311
 Alpha  occ. eigenvalues --  -10.15934 -10.15909 -10.15885 -10.15810 -10.15774
 Alpha  occ. eigenvalues --  -10.15730 -10.15496 -10.15382 -10.15355 -10.15336
 Alpha  occ. eigenvalues --   -3.08926  -1.83425  -1.83425  -1.83425  -1.11982
 Alpha  occ. eigenvalues --   -1.09817  -1.05688  -1.02978  -1.00362  -0.95933
 Alpha  occ. eigenvalues --   -0.95002  -0.94749  -0.93873  -0.85943  -0.84329
 Alpha  occ. eigenvalues --   -0.83598  -0.83045  -0.82635  -0.82389  -0.81928
 Alpha  occ. eigenvalues --   -0.81895  -0.81031  -0.80951  -0.80636  -0.79085
 Alpha  occ. eigenvalues --   -0.77666  -0.77544  -0.77386  -0.76443  -0.75435
 Alpha  occ. eigenvalues --   -0.75333  -0.74575  -0.73682  -0.72405  -0.72147
 Alpha  occ. eigenvalues --   -0.71441  -0.70777  -0.70345  -0.68994  -0.68866
 Alpha  occ. eigenvalues --   -0.68264  -0.67648  -0.67078  -0.66856  -0.66354
 Alpha  occ. eigenvalues --   -0.65878  -0.64459  -0.63304  -0.62768  -0.62169
 Alpha  occ. eigenvalues --   -0.60680  -0.60239  -0.59907  -0.58764  -0.58211
 Alpha  occ. eigenvalues --   -0.57874  -0.56817  -0.56569  -0.56151  -0.55096
 Alpha  occ. eigenvalues --   -0.54393  -0.54024  -0.53831  -0.53604  -0.53085
 Alpha  occ. eigenvalues --   -0.52874  -0.52823  -0.52473  -0.51511  -0.50460
 Alpha  occ. eigenvalues --   -0.49905  -0.49818  -0.49546  -0.49372  -0.48827
 Alpha  occ. eigenvalues --   -0.48719  -0.48109  -0.47919  -0.47760  -0.47271
 Alpha  occ. eigenvalues --   -0.46868  -0.46637  -0.46526  -0.46132  -0.45933
 Alpha  occ. eigenvalues --   -0.45634  -0.45395  -0.45250  -0.45167  -0.44862
 Alpha  occ. eigenvalues --   -0.44756  -0.44593  -0.44529  -0.44234  -0.44094
 Alpha  occ. eigenvalues --   -0.43944  -0.43767  -0.43615  -0.43481  -0.43345
 Alpha  occ. eigenvalues --   -0.43108  -0.42830  -0.42702  -0.42254  -0.42054
 Alpha  occ. eigenvalues --   -0.42002  -0.41504  -0.41265  -0.40962  -0.40799
 Alpha  occ. eigenvalues --   -0.40563  -0.40408  -0.40291  -0.40151  -0.39936
 Alpha  occ. eigenvalues --   -0.39852  -0.39704  -0.39502  -0.39321  -0.38901
 Alpha  occ. eigenvalues --   -0.38846  -0.38573  -0.38402  -0.38332  -0.38277
 Alpha  occ. eigenvalues --   -0.38225  -0.38027  -0.37943  -0.37769  -0.37510
 Alpha  occ. eigenvalues --   -0.37053  -0.36954  -0.36652  -0.36525  -0.36150
 Alpha  occ. eigenvalues --   -0.35888  -0.35813  -0.35687  -0.35499  -0.35313
 Alpha  occ. eigenvalues --   -0.35226  -0.35021  -0.34906  -0.34839  -0.34039
 Alpha  occ. eigenvalues --   -0.33727  -0.33415  -0.33368  -0.32974  -0.32740
 Alpha  occ. eigenvalues --   -0.32411  -0.32320  -0.32040  -0.31994  -0.31694
 Alpha  occ. eigenvalues --   -0.31514  -0.31135  -0.30608  -0.29904  -0.29757
 Alpha  occ. eigenvalues --   -0.28659  -0.28436  -0.28410  -0.28310  -0.27372
 Alpha  occ. eigenvalues --   -0.26822  -0.26536  -0.25456  -0.24964  -0.24588
 Alpha  occ. eigenvalues --   -0.24529  -0.23432  -0.22844  -0.22322  -0.21524
 Alpha  occ. eigenvalues --   -0.19527
 Alpha virt. eigenvalues --   -0.14573  -0.10229  -0.07624  -0.04965  -0.03473
 Alpha virt. eigenvalues --   -0.03468  -0.03462  -0.02652  -0.01812  -0.01689
 Alpha virt. eigenvalues --   -0.01171  -0.01102  -0.00662  -0.00345  -0.00203

 Mulliken charges:
               1
     1  C   -0.084673
     2  C    0.169668
     3  N   -0.238413
     4  C    0.130583
     5  C    0.073602
     6  C   -0.598534
     7  H    0.142806
     8  H    0.141502
     9  H    0.134423
    10  H    0.076727
    11  C   -0.217996
    12  C    0.262074
    13  N   -0.215567
    14  C   -0.030582
    15  C    0.655694
    16  C    0.179780
    17  C   -0.539531
    18  H    0.117337
    19  H    0.156916
    20  H    0.125409
    21  C   -0.315497
    22  C   -0.499175
    23  H    0.083095
    24  H    0.098673
    25  H    0.080612
    26  C   -0.300212
    27  C    0.289951
    28  N   -0.234800
    29  C    0.156683
    30  C   -0.248528
    31  C    0.137980
    32  N   -0.253712
    33  C   -0.272549
    34  C    0.255177
    35  C    0.109867
    36  C    0.144719
    37  O   -0.414963
    38  C    0.180084
    39  C    0.287086
    40  C   -0.480100
    41  H    0.130352
    42  H    0.163552
    43  H    0.156001
    44  C    0.028698
    45  O   -0.258236
    46  C   -0.091615
    47  H    0.143048
    48  H    0.155971
    49  H    0.154673
    50  O   -0.303592
    51  H    0.162348
    52  H    0.101008
    53  C    0.297099
    54  C   -0.023656
    55  C   -0.430344
    56  H    0.123381
    57  H    0.135189
    58  H    0.152191
    59  C   -0.300211
    60  C   -0.506208
    61  H    0.123842
    62  H    0.122729
    63  H    0.117707
    64  H    0.116987
    65  H    0.080052
    66  H    0.095926
    67  H    0.099467
    68  C   -0.062499
    69  C   -0.237137
    70  C    0.126377
    71  O   -0.272819
    72  C   -0.508182
    73  C   -0.112429
    74  C    1.143759
    75  C   -0.742783
    76  C   -0.084770
    77  C   -0.338029
    78  C    0.546100
    79  C   -0.760497
    80  C    0.020745
    81  C   -0.502307
    82  C    0.966532
    83  C   -0.642665
    84  C    0.196411
    85  C   -0.672044
    86  C    0.440563
    87  C   -0.563323
    88  H    0.113740
    89  H    0.116435
    90  H    0.114806
    91  C   -0.494592
    92  H    0.114045
    93  H    0.115272
    94  H    0.108895
    95  H    0.059482
    96  H    0.105016
    97  H    0.104075
    98  H    0.101627
    99  H    0.052547
   100  H    0.104866
   101  H    0.105554
   102  C   -0.546247
   103  H    0.111116
   104  H    0.118769
   105  H    0.124067
   106  H    0.058849
   107  H    0.101153
   108  H    0.111009
   109  H    0.048970
   110  H    0.095877
   111  H    0.106834
   112  H    0.113238
   113  C   -0.551393
   114  H    0.098729
   115  H    0.126988
   116  H    0.114515
   117  H    0.080270
   118  H    0.116976
   119  H    0.101484
   120  H    0.100677
   121  H    0.065407
   122  H    0.115460
   123  H    0.120706
   124  C   -0.791673
   125  H    0.144810
   126  H    0.139397
   127  H    0.147357
   128  H    0.078554
   129  H    0.136314
   130  H    0.146541
   131  O   -0.409157
   132  H    0.142208
   133  H    0.191937
   134  H    0.149546
   135  H    0.124898
   136  H    0.111063
   137  Mg   0.000001
 Sum of Mulliken charges =  -0.00000

 Dipole moment (field-independent basis, Debye):
    X=             -4.6991    Y=              5.0350    Z=              0.6330  Tot=              6.9161
 Quadrupole moment (field-independent basis, Debye-Ang):
   XX=           -335.4085   YY=           -429.6709   ZZ=           -388.5984
   XY=             -4.0517   XZ=              1.8854   YZ=             21.4001

 Normal termination of Gaussian 16 at Sat Jan 12 05:08:47 2019.
