 Gaussian 16, Revision A.03,
 Gaussian 16:  ES64L-G16RevA.03 25-Dec-2016

 -------------------------------------------------------
 #N TD(NStates=10) B3LYP/6-311+G(2d,p) Geom=Connectivity
 -------------------------------------------------------

 ----------
 C16H10O2N2
 ----------
 Symbolic Z-matrix:
 Charge =  0 Multiplicity = 1

                         Standard orientation:
 ---------------------------------------------------------------------
 Center     Atomic      Atomic             Coordinates (Angstroms)
 Number     Number       Type             X           Y           Z
 ---------------------------------------------------------------------
      1          6           0       -0.750641    0.110949   -4.317281
      2          6           0       -0.750641    0.110949   -2.933304
      3          6           0        0.369330    0.110949   -1.960089
      4          6           0       -0.293671    0.048586   -0.606333
      5          6           0        0.293671   -0.048586    0.606333
      6          6           0       -0.369330   -0.110949    1.960089
      7          6           0        0.750641   -0.110949    2.933304
      8          6           0        0.750641   -0.110949    4.317281
      9          6           0        1.981298   -0.096355    4.976334
     10          6           0        3.177101   -0.081214    4.262713
     11          6           0        3.191702   -0.084373    2.867604
     12          6           0        1.965824   -0.104601    2.214813
     13          7           0        1.715585   -0.199554    0.803106
     14          1           0        2.324855    0.298346    0.197136
     15          1           0        4.135890   -0.072420    2.313587
     16          1           0        4.128342   -0.067456    4.806187
     17          1           0        2.005489   -0.095657    6.071175
     18          1           0       -0.191480   -0.120082    4.875653
     19          8           0       -1.558095   -0.163150    2.191021
     20          7           0       -1.715585    0.199554   -0.803106
     21          6           0       -1.965824    0.104601   -2.214813
     22          6           0       -3.191702    0.084373   -2.867604
     23          6           0       -3.177101    0.081214   -4.262713
     24          6           0       -1.981298    0.096355   -4.976334
     25          1           0       -2.005489    0.095657   -6.071175
     26          1           0       -4.128342    0.067456   -4.806187
     27          1           0       -4.135890    0.072420   -2.313587
     28          1           0       -2.324855   -0.298346   -0.197136
     29          8           0        1.558095    0.163150   -2.191021
     30          1           0        0.191480    0.120082   -4.875653
 ---------------------------------------------------------------------

 SCF Done:  E(RB3LYP) =  -875.933872955     A.U. after   14 cycles

 Excitation energies and oscillator strengths:

 Excited State   1:      Singlet-AU     2.4592 eV  504.16 nm  f=0.2101  <S**2>=0.000
      68 -> 69         0.70136
 This state for optimization and/or second-order correction.
 Total Energy, E(TD-HF/TD-DFT) =  -875.843498087
 Copying the excited state density for this state as the 1-particle RhoCI density.

 Excited State   2:      Singlet-AG     2.7610 eV  449.05 nm  f=0.0000  <S**2>=0.000
      66 -> 69         0.31687
      67 -> 69         0.62620

 Excited State   3:      Singlet-AG     2.9856 eV  415.28 nm  f=0.0000  <S**2>=0.000
      66 -> 69         0.62066
      67 -> 69        -0.32046

 Excited State   4:      Singlet-AU     3.3699 eV  367.92 nm  f=0.0039  <S**2>=0.000
      63 -> 69         0.66297
      65 -> 69         0.13335
      66 -> 70        -0.15194

 Excited State   5:      Singlet-AG     3.7571 eV  330.00 nm  f=0.0000  <S**2>=0.000
      64 -> 69         0.21840
      68 -> 70         0.66291

 Excited State   6:      Singlet-AU     3.8800 eV  319.54 nm  f=0.2984  <S**2>=0.000
      63 -> 69        -0.11967
      65 -> 69         0.67692

 Excited State   7:      Singlet-AG     4.0069 eV  309.43 nm  f=0.0000  <S**2>=0.000
      64 -> 69         0.65951
      68 -> 70        -0.22556

 Excited State   8:      Singlet-AU     4.1283 eV  300.33 nm  f=0.1025  <S**2>=0.000
      62 -> 69         0.67521
      63 -> 69        -0.10174
      67 -> 70         0.11120

 Excited State   9:      Singlet-AU     4.5097 eV  274.93 nm  f=0.2348  <S**2>=0.000
      66 -> 70         0.13334
      67 -> 70         0.65640

 Excited State  10:      Singlet-AU     4.6752 eV  265.20 nm  f=0.3025  <S**2>=0.000
      68 -> 71         0.68717

 The electronic state is 1-AG.
 Alpha  occ. eigenvalues --  -19.12573 -19.12573 -14.36146 -14.36145 -10.27592
 Alpha  occ. eigenvalues --  -10.27591 -10.24390 -10.24314 -10.23745 -10.23744
 Alpha  occ. eigenvalues --  -10.19990 -10.19990 -10.19876 -10.19876 -10.19556
 Alpha  occ. eigenvalues --  -10.19556 -10.19080 -10.19080 -10.18795 -10.18795
 Alpha  occ. eigenvalues --   -1.06079  -1.05854  -0.98034  -0.97005  -0.87298
 Alpha  occ. eigenvalues --   -0.86751  -0.79575  -0.78815  -0.78106  -0.75841
 Alpha  occ. eigenvalues --   -0.74800  -0.70988  -0.66849  -0.62810  -0.61746
 Alpha  occ. eigenvalues --   -0.60623  -0.58011  -0.56963  -0.54003  -0.53842
 Alpha  occ. eigenvalues --   -0.51736  -0.51167  -0.48467  -0.47538  -0.46808
 Alpha  occ. eigenvalues --   -0.46538  -0.45804  -0.45450  -0.44791  -0.44428
 Alpha  occ. eigenvalues --   -0.44297  -0.43686  -0.43415  -0.39132  -0.39068
 Alpha  occ. eigenvalues --   -0.38598  -0.38409  -0.37437  -0.37197  -0.36599
 Alpha  occ. eigenvalues --   -0.34923  -0.28584  -0.28444  -0.27973  -0.27735
 Alpha  occ. eigenvalues --   -0.26622  -0.24620  -0.21956
 Alpha virt. eigenvalues --   -0.11587  -0.06017  -0.02619  -0.01892  -0.00726
 Alpha virt. eigenvalues --   -0.00349   0.00027   0.01059   0.01201   0.02132
 Alpha virt. eigenvalues --    0.02810   0.03208   0.03606   0.04013   0.04369

 Mulliken charges:
               1
     1  C   -0.289922
     2  C    1.029842
     3  C    0.141252
     4  C    0.109518
     5  C    0.109518
     6  C    0.141252
     7  C    1.029842
     8  C   -0.289922
     9  C    0.015916
    10  C   -0.080913
    11  C   -0.317934
    12  C   -0.459595
    13  N   -0.309738
    14  H    0.249517
    15  H    0.094980
    16  H    0.096606
    17  H    0.090899
    18  H    0.115997
    19  O   -0.486427
    20  N   -0.309738
    21  C   -0.459595
    22  C   -0.317934
    23  C   -0.080913
    24  C    0.015916
    25  H    0.090899
    26  H    0.096606
    27  H    0.094980
    28  H    0.249517
    29  O   -0.486427
    30  H    0.115997
 Sum of Mulliken charges =  -0.00000

 Dipole moment (field-independent basis, Debye):
    X=             -0.0000    Y=             -0.0000    Z=             -0.0000  Tot=              0.0000
 Quadrupole moment (field-independent basis, Debye-Ang):
   XX=           -102.5522   YY=           -119.4374   ZZ=            -99.3450
   XY=              2.5196   XZ=             18.4525   YZ=              0.4784

 Normal termination of Gaussian 16 at Tue Jan  8 19:47:43 2019.
