 Gaussian 16, Revision A.03,
 Gaussian 16:  ES64L-G16RevA.03 25-Dec-2016

 -------------------------------------------------------
 #N TD(NStates=10) B3LYP/6-311+G(2d,p) Geom=Connectivity
 -------------------------------------------------------

 ----------------
 C18H14O8N2S2(-2)
 ----------------
 Symbolic Z-matrix:
 Charge = -2 Multiplicity = 1

                         Standard orientation:
 ---------------------------------------------------------------------
 Center     Atomic      Atomic             Coordinates (Angstroms)
 Number     Number       Type             X           Y           Z
 ---------------------------------------------------------------------
      1          6           0        5.500639    1.697026    1.334976
      2          6           0        4.491082    0.930689    0.554181
      3          6           0        4.766963   -0.357759    0.069768
      4         16           0        6.413498   -1.239504    0.335777
      5          8           0        6.568633   -1.323090    1.826278
      6          8           0        6.255230   -2.575253   -0.328272
      7          8           0        7.428645   -0.354154   -0.328536
      8          6           0        3.776744   -1.008428   -0.656045
      9          6           0        2.534081   -0.411655   -0.914482
     10          8           0        1.643298   -1.050489   -1.774574
     11          6           0        0.920126   -2.104251   -1.175059
     12          1           0        1.550330   -2.762585   -0.566122
     13          1           0        0.082287   -1.722825   -0.568507
     14          1           0        0.527669   -2.651721   -2.036096
     15          6           0        2.260703    0.869034   -0.413334
     16          7           0        1.021511    1.582196   -0.675837
     17          7           0       -0.125293    0.971336   -0.391143
     18          6           0       -1.286354    1.612226   -0.279642
     19          6           0       -2.499372    0.809501   -0.108415
     20          6           0       -3.731370    1.462201    0.087723
     21          6           0       -4.906396    0.711213    0.240882
     22          6           0       -4.888772   -0.674371    0.202459
     23         16           0       -6.474783   -1.646037    0.373949
     24          8           0       -6.998846   -1.759961   -1.028720
     25          8           0       -6.067449   -2.958238    0.978427
     26          8           0       -7.341319   -0.801455    1.268508
     27          6           0       -3.659965   -1.310629    0.014486
     28          6           0       -2.482284   -0.590549   -0.139553
     29          1           0       -1.531047   -1.129802   -0.288972
     30          1           0       -3.631297   -2.408325   -0.003509
     31          1           0       -5.862440    1.229121    0.402686
     32          6           0       -3.797425    2.904409    0.128861
     33          6           0       -2.709193    3.677052   -0.036310
     34          6           0       -1.389304    3.087603   -0.273385
     35          8           0       -0.390616    3.799557   -0.439762
     36          1           0       -2.775777    4.769673   -0.005315
     37          1           0       -4.782022    3.357815    0.300393
     38          1           0        1.039500    2.584818   -0.518508
     39          6           0        3.255201    1.531192    0.316323
     40          1           0        3.069859    2.540884    0.707620
     41          1           0        3.977289   -2.018325   -1.047413
     42          1           0        6.418458    1.841084    0.746804
     43          1           0        5.135069    2.688989    1.633463
     44          1           0        5.777941    1.152756    2.249342
 ---------------------------------------------------------------------

 SCF Done:  E(RB3LYP) =  -2202.52404593     A.U. after   18 cycles

 Excitation energies and oscillator strengths:

 Excited State   1:      Singlet-A      2.2064 eV  561.94 nm  f=0.0000  <S**2>=0.000
     117 ->118         0.70636
 This state for optimization and/or second-order correction.
 Total Energy, E(TD-HF/TD-DFT) =  -2202.44296348
 Copying the excited state density for this state as the 1-particle RhoCI density.

 Excited State   2:      Singlet-A      2.4001 eV  516.58 nm  f=0.0033  <S**2>=0.000
     116 ->118         0.70609

 Excited State   3:      Singlet-A      2.5513 eV  485.97 nm  f=0.3050  <S**2>=0.000
     115 ->118         0.69964

 Excited State   4:      Singlet-A      2.8674 eV  432.39 nm  f=0.0247  <S**2>=0.000
     106 ->118         0.55429
     108 ->118         0.15212
     114 ->118        -0.36730

 Excited State   5:      Singlet-A      2.9221 eV  424.30 nm  f=0.0106  <S**2>=0.000
     106 ->118         0.33361
     111 ->118         0.12795
     113 ->118         0.10598
     114 ->118         0.57683

 Excited State   6:      Singlet-A      3.1674 eV  391.44 nm  f=0.0636  <S**2>=0.000
     109 ->118        -0.22650
     111 ->118         0.14146
     112 ->118         0.37324
     113 ->118         0.52306

 Excited State   7:      Singlet-A      3.2262 eV  384.30 nm  f=0.0243  <S**2>=0.000
     109 ->118        -0.22951
     111 ->118        -0.10641
     112 ->118         0.47832
     113 ->118        -0.40565
     114 ->118         0.15501

 Excited State   8:      Singlet-A      3.3032 eV  375.34 nm  f=0.0009  <S**2>=0.000
     110 ->118         0.69248
     111 ->118        -0.10969

 Excited State   9:      Singlet-A      3.3710 eV  367.80 nm  f=0.0048  <S**2>=0.000
     109 ->118         0.60644
     111 ->118        -0.10057
     112 ->118         0.33715

 Excited State  10:      Singlet-A      3.3946 eV  365.24 nm  f=0.0025  <S**2>=0.000
     106 ->118        -0.12448
     108 ->118        -0.12508
     110 ->118         0.10423
     111 ->118         0.63668
     113 ->118        -0.18677

 The electronic state is 1-A.
 Alpha  occ. eigenvalues --  -88.84469 -88.84042 -18.99347 -18.96588 -18.89771
 Alpha  occ. eigenvalues --  -18.89676 -18.89673 -18.89338 -18.89273 -18.89212
 Alpha  occ. eigenvalues --  -14.24446 -14.22682 -10.11515 -10.08190 -10.07347
 Alpha  occ. eigenvalues --  -10.07228 -10.06902 -10.05849 -10.04338 -10.03957
 Alpha  occ. eigenvalues --  -10.03949 -10.03386 -10.03255 -10.03180 -10.03051
 Alpha  occ. eigenvalues --  -10.02690 -10.02615 -10.02459 -10.02207 -10.00470
 Alpha  occ. eigenvalues --   -7.89799  -7.89378  -5.86132  -5.86073  -5.86061
 Alpha  occ. eigenvalues --   -5.85710  -5.85651  -5.85642  -0.91071  -0.90412
 Alpha  occ. eigenvalues --   -0.89589  -0.89085  -0.87734  -0.76617  -0.76475
 Alpha  occ. eigenvalues --   -0.76143  -0.75947  -0.74229  -0.72054  -0.68716
 Alpha  occ. eigenvalues --   -0.67255  -0.62537  -0.61564  -0.59518  -0.58613
 Alpha  occ. eigenvalues --   -0.56144  -0.54253  -0.51234  -0.48904  -0.47930
 Alpha  occ. eigenvalues --   -0.47148  -0.46252  -0.43503  -0.41632  -0.40310
 Alpha  occ. eigenvalues --   -0.38934  -0.38841  -0.36042  -0.34837  -0.34446
 Alpha  occ. eigenvalues --   -0.33474  -0.33305  -0.31525  -0.30415  -0.30131
 Alpha  occ. eigenvalues --   -0.29955  -0.29796  -0.28996  -0.28475  -0.27863
 Alpha  occ. eigenvalues --   -0.27365  -0.26595  -0.25555  -0.25266  -0.25116
 Alpha  occ. eigenvalues --   -0.24878  -0.24773  -0.24679  -0.24227  -0.23208
 Alpha  occ. eigenvalues --   -0.22518  -0.21930  -0.21747  -0.20268  -0.19713
 Alpha  occ. eigenvalues --   -0.19247  -0.17374  -0.16932  -0.15243  -0.13699
 Alpha  occ. eigenvalues --   -0.13277  -0.13158  -0.12839  -0.12798  -0.12165
 Alpha  occ. eigenvalues --   -0.10741  -0.10121  -0.09918  -0.09620  -0.09442
 Alpha  occ. eigenvalues --   -0.09369  -0.09216  -0.09071  -0.07956  -0.06046
 Alpha  occ. eigenvalues --   -0.05563  -0.05137
 Alpha virt. eigenvalues --    0.04561   0.11030   0.13269   0.13399   0.13817
 Alpha virt. eigenvalues --    0.13983   0.14275   0.15324   0.16027   0.16498
 Alpha virt. eigenvalues --    0.17083   0.17426   0.17908   0.18276   0.18603

 Mulliken charges:
               1
     1  C   -0.707561
     2  C    0.263055
     3  C   -0.576616
     4  S    1.494715
     5  O   -0.652904
     6  O   -0.631970
     7  O   -0.660910
     8  C    0.225331
     9  C    0.291322
    10  O   -0.412611
    11  C   -0.161507
    12  H    0.122827
    13  H    0.122593
    14  H    0.109195
    15  C    0.211185
    16  N   -0.309983
    17  N    0.008287
    18  C   -0.179669
    19  C    0.174630
    20  C    0.501833
    21  C   -0.188383
    22  C   -0.415993
    23  S    1.454476
    24  O   -0.591861
    25  O   -0.626669
    26  O   -0.629477
    27  C   -0.076088
    28  C   -0.207572
    29  H    0.079714
    30  H    0.119146
    31  H    0.117578
    32  C   -0.306242
    33  C   -0.148620
    34  C    0.141342
    35  O   -0.589093
    36  H    0.075645
    37  H    0.086409
    38  H    0.309983
    39  C   -0.480072
    40  H    0.073815
    41  H    0.146303
    42  H    0.171346
    43  H    0.081001
    44  H    0.172071
 Sum of Mulliken charges =  -2.00000

 Dipole moment (field-independent basis, Debye):
    X=              0.6696    Y=             11.2223    Z=             -1.7689  Tot=             11.3806
 Quadrupole moment (field-independent basis, Debye-Ang):
   XX=           -613.3415   YY=           -238.1249   ZZ=           -215.5468
   XY=            -16.2232   XZ=              3.3368   YZ=             10.0051

 Normal termination of Gaussian 16 at Wed Jan  9 01:17:09 2019.
